VARIABLES= X,Y,u,v,pre
ZONE I=64,J=64,T=TT
1,2,0,0,1
2,2,0,0,0.984127
3,2,0,0,0.968253
4,2,0,0,0.95238
5,2,0,0,0.936506
6,2,0,0,0.920633
7,2,0,0,0.90476
8,2,0,0,0.888886
9,2,0,0,0.873013
10,2,0,0,0.857139
11,2,0,0,0.841266
12,2,0,0,0.825393
13,2,0,0,0.809519
14,2,0,0,0.793646
15,2,0,0,0.777773
16,2,0,0,0.761899
17,2,0,0,0.746026
18,2,0,0,0.730153
19,2,0,0,0.714279
20,2,0,0,0.698406
21,2,0,0,0.682533
22,2,0,0,0.66666
23,2,0,0,0.650786
24,2,0,0,0.634913
25,2,0,0,0.61904
26,2,0,0,0.603167
27,2,0,0,0.587294
28,2,0,0,0.571421
29,2,0,0,0.555548
30,2,0,0,0.539674
31,2,0,0,0.523801
32,2,0,0,0.507928
33,2,0,0,0.492055
34,2,0,0,0.476182
35,2,0,0,0.460309
36,2,0,0,0.444436
37,2,0,0,0.428564
38,2,0,0,0.412691
39,2,0,0,0.396818
40,2,0,0,0.380945
41,2,0,0,0.365072
42,2,0,0,0.349199
43,2,0,0,0.333326
44,2,0,0,0.317453
45,2,0,0,0.301581
46,2,0,0,0.285708
47,2,0,0,0.269835
48,2,0,0,0.253962
49,2,0,0,0.23809
50,2,0,0,0.222217
51,2,0,0,0.206344
52,2,0,0,0.190472
53,2,0,0,0.174599
54,2,0,0,0.158726
55,2,0,0,0.142854
56,2,0,0,0.126981
57,2,0,0,0.111108
58,2,0,0,0.0952357
59,2,0,0,0.0793631
60,2,0,0,0.0634905
61,2,0,0,0.0476178
62,2,0,0,0.0317452
63,2,0,0,0.0158726
64,2,0,0,0
1,3,0,0,1
2,3,0,0,0.984127
3,3,0,0,0.968253
4,3,0,0,0.95238
5,3,0,0,0.936506
6,3,0,0,0.920633
7,3,0,0,0.90476
8,3,0,0,0.888886
9,3,0,0,0.873013
10,3,0,0,0.857139
11,3,0,0,0.841266
12,3,0,0,0.825393
13,3,0,0,0.809519
14,3,0,0,0.793646
15,3,0,0,0.777773
16,3,0,0,0.761899
17,3,0,0,0.746026
18,3,0,0,0.730153
19,3,0,0,0.714279
20,3,0,0,0.698406
21,3,0,0,0.682533
22,3,0,0,0.66666
23,3,0,0,0.650786
24,3,0,0,0.634913
25,3,0,0,0.61904
26,3,0,0,0.603167
27,3,0,0,0.587294
28,3,0,0,0.571421
29,3,0,0,0.555548
30,3,0,0,0.539674
31,3,0,0,0.523801
32,3,0,0,0.507928
33,3,0,0,0.492055
34,3,0,0,0.476182
35,3,0,0,0.460309
36,3,0,0,0.444436
37,3,0,0,0.428564
38,3,0,0,0.412691
39,3,0,0,0.396818
40,3,0,0,0.380945
41,3,0,0,0.365072
42,3,0,0,0.349199
43,3,0,0,0.333326
44,3,0,0,0.317454
45,3,0,0,0.301581
46,3,0,0,0.285708
47,3,0,0,0.269835
48,3,0,0,0.253962
49,3,0,0,0.23809
50,3,0,0,0.222217
51,3,0,0,0.206344
52,3,0,0,0.190472
53,3,0,0,0.174599
54,3,0,0,0.158726
55,3,0,0,0.142854
56,3,0,0,0.126981
57,3,0,0,0.111108
58,3,0,0,0.0952357
59,3,0,0,0.0793631
60,3,0,0,0.0634905
61,3,0,0,0.0476178
62,3,0,0,0.0317452
63,3,0,0,0.0158726
64,3,0,0,0
1,4,0,0,1
2,4,0,0,0.984127
3,4,0,0,0.968253
4,4,0,0,0.95238
5,4,0,0,0.936506
6,4,0,0,0.920633
7,4,0,0,0.90476
8,4,0,0,0.888886
9,4,0,0,0.873013
10,4,0,0,0.857139
11,4,0,0,0.841266
12,4,0,0,0.825393
13,4,0,0,0.809519
14,4,0,0,0.793646
15,4,0,0,0.777773
16,4,0,0,0.761899
17,4,0,0,0.746026
18,4,0,0,0.730153
19,4,0,0,0.714279
20,4,0,0,0.698406
21,4,0,0,0.682533
22,4,0,0,0.66666
23,4,0,0,0.650786
24,4,0,0,0.634913
25,4,0,0,0.61904
26,4,0,0,0.603167
27,4,0,0,0.587294
28,4,0,0,0.571421
29,4,0,0,0.555548
30,4,0,0,0.539674
31,4,0,0,0.523801
32,4,0,0,0.507928
33,4,0,0,0.492055
34,4,0,0,0.476182
35,4,0,0,0.460309
36,4,0,0,0.444436
37,4,0,0,0.428564
38,4,0,0,0.412691
39,4,0,0,0.396818
40,4,0,0,0.380945
41,4,0,0,0.365072
42,4,0,0,0.349199
43,4,0,0,0.333326
44,4,0,0,0.317454
45,4,0,0,0.301581
46,4,0,0,0.285708
47,4,0,0,0.269835
48,4,0,0,0.253962
49,4,0,0,0.23809
50,4,0,0,0.222217
51,4,0,0,0.206344
52,4,0,0,0.190472
53,4,0,0,0.174599
54,4,0,0,0.158726
55,4,0,0,0.142854
56,4,0,0,0.126981
57,4,0,0,0.111108
58,4,0,0,0.0952357
59,4,0,0,0.0793631
60,4,0,0,0.0634905
61,4,0,0,0.0476178
62,4,0,0,0.0317452
63,4,0,0,0.0158726
64,4,0,0,0
1,5,0,0,1
2,5,0,0,0.984127
3,5,0,0,0.968253
4,5,0,0,0.95238
5,5,0,0,0.936506
6,5,0,0,0.920633
7,5,0,0,0.90476
8,5,0,0,0.888886
9,5,0,0,0.873013
10,5,0,0,0.857139
11,5,0,0,0.841266
12,5,0,0,0.825393
13,5,0,0,0.809519
14,5,0,0,0.793646
15,5,0,0,0.777773
16,5,0,0,0.761899
17,5,0,0,0.746026
18,5,0,0,0.730153
19,5,0,0,0.714279
20,5,0,0,0.698406
21,5,0,0,0.682533
22,5,0,0,0.66666
23,5,0,0,0.650786
24,5,0,0,0.634913
25,5,0,0,0.61904
26,5,0,0,0.603167
27,5,0,0,0.587294
28,5,0,0,0.571421
29,5,0,0,0.555548
30,5,0,0,0.539674
31,5,0,0,0.523801
32,5,0,0,0.507928
33,5,0,0,0.492055
34,5,0,0,0.476182
35,5,0,0,0.460309
36,5,0,0,0.444436
37,5,0,0,0.428564
38,5,0,0,0.412691
39,5,0,0,0.396818
40,5,0,0,0.380945
41,5,0,0,0.365072
42,5,0,0,0.349199
43,5,0,0,0.333326
44,5,0,0,0.317454
45,5,0,0,0.301581
46,5,0,0,0.285708
47,5,0,0,0.269835
48,5,0,0,0.253962
49,5,0,0,0.23809
50,5,0,0,0.222217
51,5,0,0,0.206344
52,5,0,0,0.190472
53,5,0,0,0.174599
54,5,0,0,0.158726
55,5,0,0,0.142854
56,5,0,0,0.126981
57,5,0,0,0.111108
58,5,0,0,0.0952357
59,5,0,0,0.0793631
60,5,0,0,0.0634905
61,5,0,0,0.0476178
62,5,0,0,0.0317452
63,5,0,0,0.0158726
64,5,0,0,0
1,6,0,0,1
2,6,0,0,0.984127
3,6,0,0,0.968253
4,6,0,0,0.95238
5,6,0,0,0.936506
6,6,0,0,0.920633
7,6,0,0,0.90476
8,6,0,0,0.888886
9,6,0,0,0.873013
10,6,0,0,0.857139
11,6,0,0,0.841266
12,6,0,0,0.825393
13,6,0,0,0.809519
14,6,0,0,0.793646
15,6,0,0,0.777773
16,6,0,0,0.761899
17,6,0,0,0.746026
18,6,0,0,0.730153
19,6,0,0,0.714279
20,6,0,0,0.698406
21,6,0,0,0.682533
22,6,0,0,0.66666
23,6,0,0,0.650786
24,6,0,0,0.634913
25,6,0,0,0.61904
26,6,0,0,0.603167
27,6,0,0,0.587294
28,6,0,0,0.571421
29,6,0,0,0.555548
30,6,0,0,0.539675
31,6,0,0,0.523801
32,6,0,0,0.507928
33,6,0,0,0.492055
34,6,0,0,0.476182
35,6,0,0,0.460309
36,6,0,0,0.444436
37,6,0,0,0.428564
38,6,0,0,0.412691
39,6,0,0,0.396818
40,6,0,0,0.380945
41,6,0,0,0.365072
42,6,0,0,0.349199
43,6,0,0,0.333326
44,6,0,0,0.317454
45,6,0,0,0.301581
46,6,0,0,0.285708
47,6,0,0,0.269835
48,6,0,0,0.253962
49,6,0,0,0.23809
50,6,0,0,0.222217
51,6,0,0,0.206344
52,6,0,0,0.190472
53,6,0,0,0.174599
54,6,0,0,0.158726
55,6,0,0,0.142854
56,6,0,0,0.126981
57,6,0,0,0.111108
58,6,0,0,0.0952357
59,6,0,0,0.0793631
60,6,0,0,0.0634905
61,6,0,0,0.0476178
62,6,0,0,0.0317452
63,6,0,0,0.0158726
64,6,0,0,0
1,7,0,0,1
2,7,0,0,0.984127
3,7,0,0,0.968253
4,7,0,0,0.95238
5,7,0,0,0.936506
6,7,0,0,0.920633
7,7,0,0,0.90476
8,7,0,0,0.888886
9,7,0,0,0.873013
10,7,0,0,0.857139
11,7,0,0,0.841266
12,7,0,0,0.825393
13,7,0,0,0.809519
14,7,0,0,0.793646
15,7,0,0,0.777773
16,7,0,0,0.761899
17,7,0,0,0.746026
18,7,0,0,0.730153
19,7,0,0,0.714279
20,7,0,0,0.698406
21,7,0,0,0.682533
22,7,0,0,0.66666
23,7,0,0,0.650786
24,7,0,0,0.634913
25,7,0,0,0.61904
26,7,0,0,0.603167
27,7,0,0,0.587294
28,7,0,0,0.571421
29,7,0,0,0.555548
30,7,0,0,0.539675
31,7,0,0,0.523801
32,7,0,0,0.507928
33,7,0,0,0.492055
34,7,0,0,0.476182
35,7,0,0,0.460309
36,7,0,0,0.444436
37,7,0,0,0.428564
38,7,0,0,0.412691
39,7,0,0,0.396818
40,7,0,0,0.380945
41,7,0,0,0.365072
42,7,0,0,0.349199
43,7,0,0,0.333326
44,7,0,0,0.317454
45,7,0,0,0.301581
46,7,0,0,0.285708
47,7,0,0,0.269835
48,7,0,0,0.253962
49,7,0,0,0.23809
50,7,0,0,0.222217
51,7,0,0,0.206344
52,7,0,0,0.190472
53,7,0,0,0.174599
54,7,0,0,0.158726
55,7,0,0,0.142854
56,7,0,0,0.126981
57,7,0,0,0.111108
58,7,0,0,0.0952357
59,7,0,0,0.0793631
60,7,0,0,0.0634905
61,7,0,0,0.0476178
62,7,0,0,0.0317452
63,7,0,0,0.0158726
64,7,0,0,0
1,8,0,0,1
2,8,0,0,0.984127
3,8,0,0,0.968253
4,8,0,0,0.95238
5,8,0,0,0.936506
6,8,0,0,0.920633
7,8,0,0,0.90476
8,8,0,0,0.888886
9,8,0,0,0.873013
10,8,0,0,0.857139
11,8,0,0,0.841266
12,8,0,0,0.825393
13,8,0,0,0.809519
14,8,0,0,0.793646
15,8,0,0,0.777773
16,8,0,0,0.761899
17,8,0,0,0.746026
18,8,0,0,0.730153
19,8,0,0,0.714279
20,8,0,0,0.698406
21,8,0,0,0.682533
22,8,0,0,0.66666
23,8,0,0,0.650786
24,8,0,0,0.634913
25,8,0,0,0.61904
26,8,0,0,0.603167
27,8,0,0,0.587294
28,8,0,0,0.571421
29,8,0,0,0.555548
30,8,0,0,0.539675
31,8,0,0,0.523801
32,8,0,0,0.507928
33,8,0,0,0.492055
34,8,0,0,0.476182
35,8,0,0,0.460309
36,8,0,0,0.444436
37,8,0,0,0.428564
38,8,0,0,0.412691
39,8,0,0,0.396818
40,8,0,0,0.380945
41,8,0,0,0.365072
42,8,0,0,0.349199
43,8,0,0,0.333326
44,8,0,0,0.317454
45,8,0,0,0.301581
46,8,0,0,0.285708
47,8,0,0,0.269835
48,8,0,0,0.253962
49,8,0,0,0.23809
50,8,0,0,0.222217
51,8,0,0,0.206344
52,8,0,0,0.190472
53,8,0,0,0.174599
54,8,0,0,0.158726
55,8,0,0,0.142854
56,8,0,0,0.126981
57,8,0,0,0.111108
58,8,0,0,0.0952357
59,8,0,0,0.0793631
60,8,0,0,0.0634905
61,8,0,0,0.0476178
62,8,0,0,0.0317452
63,8,0,0,0.0158726
64,8,0,0,0
1,9,0,0,1
2,9,0,0,0.984127
3,9,0,0,0.968253
4,9,0,0,0.95238
5,9,0,0,0.936506
6,9,0,0,0.920633
7,9,0,0,0.90476
8,9,0,0,0.888886
9,9,0,0,0.873013
10,9,0,0,0.857139
11,9,0,0,0.841266
12,9,0,0,0.825393
13,9,0,0,0.809519
14,9,0,0,0.793646
15,9,0,0,0.777773
16,9,0,0,0.761899
17,9,0,0,0.746026
18,9,0,0,0.730153
19,9,0,0,0.714279
20,9,0,0,0.698406
21,9,0,0,0.682533
22,9,0,0,0.66666
23,9,0,0,0.650786
24,9,0,0,0.634913
25,9,0,0,0.61904
26,9,0,0,0.603167
27,9,0,0,0.587294
28,9,0,0,0.571421
29,9,0,0,0.555548
30,9,0,0,0.539675
31,9,0,0,0.523801
32,9,0,0,0.507928
33,9,0,0,0.492055
34,9,0,0,0.476182
35,9,0,0,0.460309
36,9,0,0,0.444436
37,9,0,0,0.428564
38,9,0,0,0.412691
39,9,0,0,0.396818
40,9,0,0,0.380945
41,9,0,0,0.365072
42,9,0,0,0.349199
43,9,0,0,0.333326
44,9,0,0,0.317454
45,9,0,0,0.301581
46,9,0,0,0.285708
47,9,0,0,0.269835
48,9,0,0,0.253962
49,9,0,0,0.23809
50,9,0,0,0.222217
51,9,0,0,0.206344
52,9,0,0,0.190472
53,9,0,0,0.174599
54,9,0,0,0.158726
55,9,0,0,0.142854
56,9,0,0,0.126981
57,9,0,0,0.111108
58,9,0,0,0.0952357
59,9,0,0,0.0793631
60,9,0,0,0.0634905
61,9,0,0,0.0476178
62,9,0,0,0.0317452
63,9,0,0,0.0158726
64,9,0,0,0
1,10,0,0,1
2,10,0,0,0.984127
3,10,0,0,0.968253
4,10,0,0,0.95238
5,10,0,0,0.936506
6,10,0,0,0.920633
7,10,0,0,0.90476
8,10,0,0,0.888886
9,10,0,0,0.873013
10,10,0,0,0.857139
11,10,0,0,0.841266
12,10,0,0,0.825393
13,10,0,0,0.809519
14,10,0,0,0.793646
15,10,0,0,0.777773
16,10,0,0,0.761899
17,10,0,0,0.746026
18,10,0,0,0.730153
19,10,0,0,0.714279
20,10,0,0,0.698406
21,10,0,0,0.682533
22,10,0,0,0.66666
23,10,0,0,0.650786
24,10,0,0,0.634913
25,10,0,0,0.61904
26,10,0,0,0.603167
27,10,0,0,0.587294
28,10,0,0,0.571421
29,10,0,0,0.555548
30,10,0,0,0.539675
31,10,0,0,0.523801
32,10,0,0,0.507928
33,10,0,0,0.492055
34,10,0,0,0.476182
35,10,0,0,0.460309
36,10,0,0,0.444436
37,10,0,0,0.428564
38,10,0,0,0.412691
39,10,0,0,0.396818
40,10,0,0,0.380945
41,10,0,0,0.365072
42,10,0,0,0.349199
43,10,0,0,0.333326
44,10,0,0,0.317454
45,10,0,0,0.301581
46,10,0,0,0.285708
47,10,0,0,0.269835
48,10,0,0,0.253962
49,10,0,0,0.23809
50,10,0,0,0.222217
51,10,0,0,0.206344
52,10,0,0,0.190472
53,10,0,0,0.174599
54,10,0,0,0.158726
55,10,0,0,0.142854
56,10,0,0,0.126981
57,10,0,0,0.111108
58,10,0,0,0.0952357
59,10,0,0,0.0793631
60,10,0,0,0.0634905
61,10,0,0,0.0476178
62,10,0,0,0.0317452
63,10,0,0,0.0158726
64,10,0,0,0
1,11,0,0,1
2,11,0,0,0.984127
3,11,0,0,0.968253
4,11,0,0,0.95238
5,11,0,0,0.936506
6,11,0,0,0.920633
7,11,0,0,0.90476
8,11,0,0,0.888886
9,11,0,0,0.873013
10,11,0,0,0.857139
11,11,0,0,0.841266
12,11,0,0,0.825393
13,11,0,0,0.809519
14,11,0,0,0.793646
15,11,0,0,0.777773
16,11,0,0,0.761899
17,11,0,0,0.746026
18,11,0,0,0.730153
19,11,0,0,0.714279
20,11,0,0,0.698406
21,11,0,0,0.682533
22,11,0,0,0.66666
23,11,0,0,0.650786
24,11,0,0,0.634913
25,11,0,0,0.61904
26,11,0,0,0.603167
27,11,0,0,0.587294
28,11,0,0,0.571421
29,11,0,0,0.555548
30,11,0,0,0.539675
31,11,0,0,0.523801
32,11,0,0,0.507928
33,11,0,0,0.492055
34,11,0,0,0.476182
35,11,0,0,0.460309
36,11,0,0,0.444436
37,11,0,0,0.428564
38,11,0,0,0.412691
39,11,0,0,0.396818
40,11,0,0,0.380945
41,11,0,0,0.365072
42,11,0,0,0.349199
43,11,0,0,0.333326
44,11,0,0,0.317454
45,11,0,0,0.301581
46,11,0,0,0.285708
47,11,0,0,0.269835
48,11,0,0,0.253962
49,11,0,0,0.23809
50,11,0,0,0.222217
51,11,0,0,0.206344
52,11,0,0,0.190472
53,11,0,0,0.174599
54,11,0,0,0.158726
55,11,0,0,0.142854
56,11,0,0,0.126981
57,11,0,0,0.111108
58,11,0,0,0.0952357
59,11,0,0,0.0793631
60,11,0,0,0.0634905
61,11,0,0,0.0476178
62,11,0,0,0.0317452
63,11,0,0,0.0158726
64,11,0,0,0
1,12,0,0,1
2,12,0,0,0.984127
3,12,0,0,0.968253
4,12,0,0,0.95238
5,12,0,0,0.936506
6,12,0,0,0.920633
7,12,0,0,0.90476
8,12,0,0,0.888886
9,12,0,0,0.873013
10,12,0,0,0.857139
11,12,0,0,0.841266
12,12,0,0,0.825393
13,12,0,0,0.809519
14,12,0,0,0.793646
15,12,0,0,0.777773
16,12,0,0,0.761899
17,12,0,0,0.746026
18,12,0,0,0.730153
19,12,0,0,0.714279
20,12,0,0,0.698406
21,12,0,0,0.682533
22,12,0,0,0.66666
23,12,0,0,0.650786
24,12,0,0,0.634913
25,12,0,0,0.61904
26,12,0,0,0.603167
27,12,0,0,0.587294
28,12,0,0,0.571421
29,12,0,0,0.555548
30,12,0,0,0.539675
31,12,0,0,0.523801
32,12,0,0,0.507928
33,12,0,0,0.492055
34,12,0,0,0.476182
35,12,0,0,0.460309
36,12,0,0,0.444436
37,12,0,0,0.428564
38,12,0,0,0.412691
39,12,0,0,0.396818
40,12,0,0,0.380945
41,12,0,0,0.365072
42,12,0,0,0.349199
43,12,0,0,0.333326
44,12,0,0,0.317454
45,12,0,0,0.301581
46,12,0,0,0.285708
47,12,0,0,0.269835
48,12,0,0,0.253962
49,12,0,0,0.23809
50,12,0,0,0.222217
51,12,0,0,0.206344
52,12,0,0,0.190472
53,12,0,0,0.174599
54,12,0,0,0.158726
55,12,0,0,0.142854
56,12,0,0,0.126981
57,12,0,0,0.111108
58,12,0,0,0.0952357
59,12,0,0,0.0793631
60,12,0,0,0.0634905
61,12,0,0,0.0476178
62,12,0,0,0.0317452
63,12,0,0,0.0158726
64,12,0,0,0
1,13,0,0,1
2,13,0,0,0.984127
3,13,0,0,0.968253
4,13,0,0,0.95238
5,13,0,0,0.936506
6,13,0,0,0.920633
7,13,0,0,0.90476
8,13,0,0,0.888886
9,13,0,0,0.873013
10,13,0,0,0.857139
11,13,0,0,0.841266
12,13,0,0,0.825393
13,13,0,0,0.809519
14,13,0,0,0.793646
15,13,0,0,0.777773
16,13,0,0,0.761899
17,13,0,0,0.746026
18,13,0,0,0.730153
19,13,0,0,0.714279
20,13,0,0,0.698406
21,13,0,0,0.682533
22,13,0,0,0.66666
23,13,0,0,0.650786
24,13,0,0,0.634913
25,13,0,0,0.61904
26,13,0,0,0.603167
27,13,0,0,0.587294
28,13,0,0,0.571421
29,13,0,0,0.555548
30,13,0,0,0.539675
31,13,0,0,0.523801
32,13,0,0,0.507928
33,13,0,0,0.492055
34,13,0,0,0.476182
35,13,0,0,0.460309
36,13,0,0,0.444436
37,13,0,0,0.428564
38,13,0,0,0.412691
39,13,0,0,0.396818
40,13,0,0,0.380945
41,13,0,0,0.365072
42,13,0,0,0.349199
43,13,0,0,0.333326
44,13,0,0,0.317454
45,13,0,0,0.301581
46,13,0,0,0.285708
47,13,0,0,0.269835
48,13,0,0,0.253962
49,13,0,0,0.23809
50,13,0,0,0.222217
51,13,0,0,0.206344
52,13,0,0,0.190472
53,13,0,0,0.174599
54,13,0,0,0.158726
55,13,0,0,0.142854
56,13,0,0,0.126981
57,13,0,0,0.111108
58,13,0,0,0.0952357
59,13,0,0,0.0793631
60,13,0,0,0.0634905
61,13,0,0,0.0476178
62,13,0,0,0.0317452
63,13,0,0,0.0158726
64,13,0,0,0
1,14,0,0,1
2,14,0,0,0.984127
3,14,0,0,0.968253
4,14,0,0,0.95238
5,14,0,0,0.936506
6,14,0,0,0.920633
7,14,0,0,0.90476
8,14,0,0,0.888886
9,14,0,0,0.873013
10,14,0,0,0.857139
11,14,0,0,0.841266
12,14,0,0,0.825393
13,14,0,0,0.809519
14,14,0,0,0.793646
15,14,0,0,0.777773
16,14,0,0,0.761899
17,14,0,0,0.746026
18,14,0,0,0.730153
19,14,0,0,0.714279
20,14,0,0,0.698406
21,14,0,0,0.682533
22,14,0,0,0.66666
23,14,0,0,0.650786
24,14,0,0,0.634913
25,14,0,0,0.61904
26,14,0,0,0.603167
27,14,0,0,0.587294
28,14,0,0,0.571421
29,14,0,0,0.555548
30,14,0,0,0.539675
31,14,0,0,0.523801
32,14,0,0,0.507928
33,14,0,0,0.492055
34,14,0,0,0.476182
35,14,0,0,0.460309
36,14,0,0,0.444436
37,14,0,0,0.428564
38,14,0,0,0.412691
39,14,0,0,0.396818
40,14,0,0,0.380945
41,14,0,0,0.365072
42,14,0,0,0.349199
43,14,0,0,0.333326
44,14,0,0,0.317454
45,14,0,0,0.301581
46,14,0,0,0.285708
47,14,0,0,0.269835
48,14,0,0,0.253962
49,14,0,0,0.23809
50,14,0,0,0.222217
51,14,0,0,0.206344
52,14,0,0,0.190472
53,14,0,0,0.174599
54,14,0,0,0.158726
55,14,0,0,0.142854
56,14,0,0,0.126981
57,14,0,0,0.111108
58,14,0,0,0.0952357
59,14,0,0,0.0793631
60,14,0,0,0.0634905
61,14,0,0,0.0476178
62,14,0,0,0.0317452
63,14,0,0,0.0158726
64,14,0,0,0
1,15,0,0,1
2,15,0,0,0.984127
3,15,0,0,0.968253
4,15,0,0,0.95238
5,15,0,0,0.936506
6,15,0,0,0.920633
7,15,0,0,0.90476
8,15,0,0,0.888886
9,15,0,0,0.873013
10,15,0,0,0.857139
11,15,0,0,0.841266
12,15,0,0,0.825393
13,15,0,0,0.809519
14,15,0,0,0.793646
15,15,0,0,0.777773
16,15,0,0,0.761899
17,15,0,0,0.746026
18,15,0,0,0.730153
19,15,0,0,0.714279
20,15,0,0,0.698406
21,15,0,0,0.682533
22,15,0,0,0.66666
23,15,0,0,0.650786
24,15,0,0,0.634913
25,15,0,0,0.61904
26,15,0,0,0.603167
27,15,0,0,0.587294
28,15,0,0,0.571421
29,15,0,0,0.555548
30,15,0,0,0.539675
31,15,0,0,0.523801
32,15,0,0,0.507928
33,15,0,0,0.492055
34,15,0,0,0.476182
35,15,0,0,0.460309
36,15,0,0,0.444436
37,15,0,0,0.428564
38,15,0,0,0.412691
39,15,0,0,0.396818
40,15,0,0,0.380945
41,15,0,0,0.365072
42,15,0,0,0.349199
43,15,0,0,0.333326
44,15,0,0,0.317454
45,15,0,0,0.301581
46,15,0,0,0.285708
47,15,0,0,0.269835
48,15,0,0,0.253962
49,15,0,0,0.23809
50,15,0,0,0.222217
51,15,0,0,0.206344
52,15,0,0,0.190472
53,15,0,0,0.174599
54,15,0,0,0.158726
55,15,0,0,0.142854
56,15,0,0,0.126981
57,15,0,0,0.111108
58,15,0,0,0.0952357
59,15,0,0,0.0793631
60,15,0,0,0.0634905
61,15,0,0,0.0476178
62,15,0,0,0.0317452
63,15,0,0,0.0158726
64,15,0,0,0
1,16,0,0,1
2,16,0,0,0.984127
3,16,0,0,0.968253
4,16,0,0,0.95238
5,16,0,0,0.936506
6,16,0,0,0.920633
7,16,0,0,0.90476
8,16,0,0,0.888886
9,16,0,0,0.873013
10,16,0,0,0.857139
11,16,0,0,0.841266
12,16,0,0,0.825393
13,16,0,0,0.809519
14,16,0,0,0.793646
15,16,0,0,0.777773
16,16,0,0,0.761899
17,16,0,0,0.746026
18,16,0,0,0.730153
19,16,0,0,0.714279
20,16,0,0,0.698406
21,16,0,0,0.682533
22,16,0,0,0.66666
23,16,0,0,0.650786
24,16,0,0,0.634913
25,16,0,0,0.61904
26,16,0,0,0.603167
27,16,0,0,0.587294
28,16,0,0,0.571421
29,16,0,0,0.555548
30,16,0,0,0.539675
31,16,0,0,0.523801
32,16,0,0,0.507928
33,16,0,0,0.492055
34,16,0,0,0.476182
35,16,0,0,0.460309
36,16,0,0,0.444436
37,16,0,0,0.428564
38,16,0,0,0.412691
39,16,0,0,0.396818
40,16,0,0,0.380945
41,16,0,0,0.365072
42,16,0,0,0.349199
43,16,0,0,0.333326
44,16,0,0,0.317454
45,16,0,0,0.301581
46,16,0,0,0.285708
47,16,0,0,0.269835
48,16,0,0,0.253962
49,16,0,0,0.23809
50,16,0,0,0.222217
51,16,0,0,0.206344
52,16,0,0,0.190472
53,16,0,0,0.174599
54,16,0,0,0.158726
55,16,0,0,0.142854
56,16,0,0,0.126981
57,16,0,0,0.111108
58,16,0,0,0.0952357
59,16,0,0,0.0793631
60,16,0,0,0.0634905
61,16,0,0,0.0476178
62,16,0,0,0.0317452
63,16,0,0,0.0158726
64,16,0,0,0
1,17,0,0,1
2,17,0,0,0.984127
3,17,0,0,0.968253
4,17,0,0,0.95238
5,17,0,0,0.936506
6,17,0,0,0.920633
7,17,0,0,0.90476
8,17,0,0,0.888886
9,17,0,0,0.873013
10,17,0,0,0.857139
11,17,0,0,0.841266
12,17,0,0,0.825393
13,17,0,0,0.809519
14,17,0,0,0.793646
15,17,0,0,0.777773
16,17,0,0,0.761899
17,17,0,0,0.746026
18,17,0,0,0.730153
19,17,0,0,0.714279
20,17,0,0,0.698406
21,17,0,0,0.682533
22,17,0,0,0.66666
23,17,0,0,0.650786
24,17,0,0,0.634913
25,17,0,0,0.61904
26,17,0,0,0.603167
27,17,0,0,0.587294
28,17,0,0,0.571421
29,17,0,0,0.555548
30,17,0,0,0.539675
31,17,0,0,0.523801
32,17,0,0,0.507928
33,17,0,0,0.492055
34,17,0,0,0.476182
35,17,0,0,0.460309
36,17,0,0,0.444436
37,17,0,0,0.428564
38,17,0,0,0.412691
39,17,0,0,0.396818
40,17,0,0,0.380945
41,17,0,0,0.365072
42,17,0,0,0.349199
43,17,0,0,0.333326
44,17,0,0,0.317454
45,17,0,0,0.301581
46,17,0,0,0.285708
47,17,0,0,0.269835
48,17,0,0,0.253962
49,17,0,0,0.23809
50,17,0,0,0.222217
51,17,0,0,0.206344
52,17,0,0,0.190472
53,17,0,0,0.174599
54,17,0,0,0.158726
55,17,0,0,0.142854
56,17,0,0,0.126981
57,17,0,0,0.111108
58,17,0,0,0.0952357
59,17,0,0,0.0793631
60,17,0,0,0.0634905
61,17,0,0,0.0476178
62,17,0,0,0.0317452
63,17,0,0,0.0158726
64,17,0,0,0
1,18,0,0,1
2,18,0,0,0.984127
3,18,0,0,0.968253
4,18,0,0,0.95238
5,18,0,0,0.936506
6,18,0,0,0.920633
7,18,0,0,0.90476
8,18,0,0,0.888886
9,18,0,0,0.873013
10,18,0,0,0.857139
11,18,0,0,0.841266
12,18,0,0,0.825393
13,18,0,0,0.809519
14,18,0,0,0.793646
15,18,0,0,0.777773
16,18,0,0,0.761899
17,18,0,0,0.746026
18,18,0,0,0.730153
19,18,0,0,0.714279
20,18,0,0,0.698406
21,18,0,0,0.682533
22,18,0,0,0.66666
23,18,0,0,0.650786
24,18,0,0,0.634913
25,18,0,0,0.61904
26,18,0,0,0.603167
27,18,0,0,0.587294
28,18,0,0,0.571421
29,18,0,0,0.555548
30,18,0,0,0.539675
31,18,0,0,0.523801
32,18,0,0,0.507928
33,18,0,0,0.492055
34,18,0,0,0.476182
35,18,0,0,0.460309
36,18,0,0,0.444436
37,18,0,0,0.428564
38,18,0,0,0.412691
39,18,0,0,0.396818
40,18,0,0,0.380945
41,18,0,0,0.365072
42,18,0,0,0.349199
43,18,0,0,0.333326
44,18,0,0,0.317454
45,18,0,0,0.301581
46,18,0,0,0.285708
47,18,0,0,0.269835
48,18,0,0,0.253962
49,18,0,0,0.23809
50,18,0,0,0.222217
51,18,0,0,0.206344
52,18,0,0,0.190472
53,18,0,0,0.174599
54,18,0,0,0.158726
55,18,0,0,0.142854
56,18,0,0,0.126981
57,18,0,0,0.111108
58,18,0,0,0.0952357
59,18,0,0,0.0793631
60,18,0,0,0.0634905
61,18,0,0,0.0476178
62,18,0,0,0.0317452
63,18,0,0,0.0158726
64,18,0,0,0
1,19,0,0,1
2,19,0,0,0.984127
3,19,0,0,0.968253
4,19,0,0,0.95238
5,19,0,0,0.936506
6,19,0,0,0.920633
7,19,0,0,0.90476
8,19,0,0,0.888886
9,19,0,0,0.873013
10,19,0,0,0.857139
11,19,0,0,0.841266
12,19,0,0,0.825393
13,19,0,0,0.809519
14,19,0,0,0.793646
15,19,0,0,0.777773
16,19,0,0,0.761899
17,19,0,0,0.746026
18,19,0,0,0.730153
19,19,0,0,0.714279
20,19,0,0,0.698406
21,19,0,0,0.682533
22,19,0,0,0.66666
23,19,0,0,0.650786
24,19,0,0,0.634913
25,19,0,0,0.61904
26,19,0,0,0.603167
27,19,0,0,0.587294
28,19,0,0,0.571421
29,19,0,0,0.555548
30,19,0,0,0.539675
31,19,0,0,0.523801
32,19,0,0,0.507928
33,19,0,0,0.492055
34,19,0,0,0.476182
35,19,0,0,0.460309
36,19,0,0,0.444436
37,19,0,0,0.428564
38,19,0,0,0.412691
39,19,0,0,0.396818
40,19,0,0,0.380945
41,19,0,0,0.365072
42,19,0,0,0.349199
43,19,0,0,0.333326
44,19,0,0,0.317454
45,19,0,0,0.301581
46,19,0,0,0.285708
47,19,0,0,0.269835
48,19,0,0,0.253962
49,19,0,0,0.23809
50,19,0,0,0.222217
51,19,0,0,0.206344
52,19,0,0,0.190472
53,19,0,0,0.174599
54,19,0,0,0.158726
55,19,0,0,0.142854
56,19,0,0,0.126981
57,19,0,0,0.111108
58,19,0,0,0.0952357
59,19,0,0,0.0793631
60,19,0,0,0.0634905
61,19,0,0,0.0476178
62,19,0,0,0.0317452
63,19,0,0,0.0158726
64,19,0,0,0
1,20,0,0,1
2,20,0,0,0.984127
3,20,0,0,0.968253
4,20,0,0,0.95238
5,20,0,0,0.936506
6,20,0,0,0.920633
7,20,0,0,0.90476
8,20,0,0,0.888886
9,20,0,0,0.873013
10,20,0,0,0.857139
11,20,0,0,0.841266
12,20,0,0,0.825393
13,20,0,0,0.809519
14,20,0,0,0.793646
15,20,0,0,0.777773
16,20,0,0,0.761899
17,20,0,0,0.746026
18,20,0,0,0.730153
19,20,0,0,0.714279
20,20,0,0,0.698406
21,20,0,0,0.682533
22,20,0,0,0.66666
23,20,0,0,0.650786
24,20,0,0,0.634913
25,20,0,0,0.61904
26,20,0,0,0.603167
27,20,0,0,0.587294
28,20,0,0,0.571421
29,20,0,0,0.555548
30,20,0,0,0.539675
31,20,0,0,0.523801
32,20,0,0,0.507928
33,20,0,0,0.492055
34,20,0,0,0.476182
35,20,0,0,0.460309
36,20,0,0,0.444437
37,20,0,0,0.428564
38,20,0,0,0.412691
39,20,0,0,0.396818
40,20,0,0,0.380945
41,20,0,0,0.365072
42,20,0,0,0.349199
43,20,0,0,0.333326
44,20,0,0,0.317454
45,20,0,0,0.301581
46,20,0,0,0.285708
47,20,0,0,0.269835
48,20,0,0,0.253962
49,20,0,0,0.23809
50,20,0,0,0.222217
51,20,0,0,0.206344
52,20,0,0,0.190472
53,20,0,0,0.174599
54,20,0,0,0.158726
55,20,0,0,0.142854
56,20,0,0,0.126981
57,20,0,0,0.111108
58,20,0,0,0.0952357
59,20,0,0,0.0793631
60,20,0,0,0.0634905
61,20,0,0,0.0476178
62,20,0,0,0.0317452
63,20,0,0,0.0158726
64,20,0,0,0
1,21,0,0,1
2,21,0,0,0.984127
3,21,0,0,0.968253
4,21,0,0,0.95238
5,21,0,0,0.936506
6,21,0,0,0.920633
7,21,0,0,0.90476
8,21,0,0,0.888886
9,21,0,0,0.873013
10,21,0,0,0.857139
11,21,0,0,0.841266
12,21,0,0,0.825393
13,21,0,0,0.809519
14,21,0,0,0.793646
15,21,0,0,0.777773
16,21,0,0,0.761899
17,21,0,0,0.746026
18,21,0,0,0.730153
19,21,0,0,0.714279
20,21,0,0,0.698406
21,21,0,0,0.682533
22,21,0,0,0.66666
23,21,0,0,0.650786
24,21,0,0,0.634913
25,21,0,0,0.61904
26,21,0,0,0.603167
27,21,0,0,0.587294
28,21,0,0,0.571421
29,21,0,0,0.555548
30,21,0,0,0.539675
31,21,0,0,0.523801
32,21,0,0,0.507928
33,21,0,0,0.492055
34,21,0,0,0.476182
35,21,0,0,0.460309
36,21,0,0,0.444437
37,21,0,0,0.428564
38,21,0,0,0.412691
39,21,0,0,0.396818
40,21,0,0,0.380945
41,21,0,0,0.365072
42,21,0,0,0.349199
43,21,0,0,0.333326
44,21,0,0,0.317454
45,21,0,0,0.301581
46,21,0,0,0.285708
47,21,0,0,0.269835
48,21,0,0,0.253962
49,21,0,0,0.23809
50,21,0,0,0.222217
51,21,0,0,0.206344
52,21,0,0,0.190472
53,21,0,0,0.174599
54,21,0,0,0.158726
55,21,0,0,0.142854
56,21,0,0,0.126981
57,21,0,0,0.111108
58,21,0,0,0.0952357
59,21,0,0,0.0793631
60,21,0,0,0.0634905
61,21,0,0,0.0476178
62,21,0,0,0.0317452
63,21,0,0,0.0158726
64,21,0,0,0
1,22,0,0,1
2,22,0,0,0.984127
3,22,0,0,0.968253
4,22,0,0,0.95238
5,22,0,0,0.936506
6,22,0,0,0.920633
7,22,0,0,0.90476
8,22,0,0,0.888886
9,22,0,0,0.873013
10,22,0,0,0.857139
11,22,0,0,0.841266
12,22,0,0,0.825393
13,22,0,0,0.809519
14,22,0,0,0.793646
15,22,0,0,0.777773
16,22,0,0,0.761899
17,22,0,0,0.746026
18,22,0,0,0.730153
19,22,0,0,0.714279
20,22,0,0,0.698406
21,22,0,0,0.682533
22,22,0,0,0.66666
23,22,0,0,0.650786
24,22,0,0,0.634913
25,22,0,0,0.61904
26,22,0,0,0.603167
27,22,0,0,0.587294
28,22,0,0,0.571421
29,22,0,0,0.555548
30,22,0,0,0.539675
31,22,0,0,0.523801
32,22,0,0,0.507928
33,22,0,0,0.492055
34,22,0,0,0.476182
35,22,0,0,0.460309
36,22,0,0,0.444437
37,22,0,0,0.428564
38,22,0,0,0.412691
39,22,0,0,0.396818
40,22,0,0,0.380945
41,22,0,0,0.365072
42,22,0,0,0.349199
43,22,0,0,0.333326
44,22,0,0,0.317454
45,22,0,0,0.301581
46,22,0,0,0.285708
47,22,0,0,0.269835
48,22,0,0,0.253962
49,22,0,0,0.23809
50,22,0,0,0.222217
51,22,0,0,0.206344
52,22,0,0,0.190472
53,22,0,0,0.174599
54,22,0,0,0.158726
55,22,0,0,0.142854
56,22,0,0,0.126981
57,22,0,0,0.111108
58,22,0,0,0.0952357
59,22,0,0,0.0793631
60,22,0,0,0.0634905
61,22,0,0,0.0476178
62,22,0,0,0.0317452
63,22,0,0,0.0158726
64,22,0,0,0
1,23,0,0,1
2,23,0,0,0.984127
3,23,0,0,0.968253
4,23,0,0,0.95238
5,23,0,0,0.936506
6,23,0,0,0.920633
7,23,0,0,0.90476
8,23,0,0,0.888886
9,23,0,0,0.873013
10,23,0,0,0.857139
11,23,0,0,0.841266
12,23,0,0,0.825393
13,23,0,0,0.809519
14,23,0,0,0.793646
15,23,0,0,0.777773
16,23,0,0,0.761899
17,23,0,0,0.746026
18,23,0,0,0.730153
19,23,0,0,0.714279
20,23,0,0,0.698406
21,23,0,0,0.682533
22,23,0,0,0.66666
23,23,0,0,0.650786
24,23,0,0,0.634913
25,23,0,0,0.61904
26,23,0,0,0.603167
27,23,0,0,0.587294
28,23,0,0,0.571421
29,23,0,0,0.555548
30,23,0,0,0.539675
31,23,0,0,0.523801
32,23,0,0,0.507928
33,23,0,0,0.492055
34,23,0,0,0.476182
35,23,0,0,0.460309
36,23,0,0,0.444437
37,23,0,0,0.428564
38,23,0,0,0.412691
39,23,0,0,0.396818
40,23,0,0,0.380945
41,23,0,0,0.365072
42,23,0,0,0.349199
43,23,0,0,0.333326
44,23,0,0,0.317454
45,23,0,0,0.301581
46,23,0,0,0.285708
47,23,0,0,0.269835
48,23,0,0,0.253962
49,23,0,0,0.23809
50,23,0,0,0.222217
51,23,0,0,0.206344
52,23,0,0,0.190472
53,23,0,0,0.174599
54,23,0,0,0.158726
55,23,0,0,0.142854
56,23,0,0,0.126981
57,23,0,0,0.111108
58,23,0,0,0.0952357
59,23,0,0,0.0793631
60,23,0,0,0.0634905
61,23,0,0,0.0476178
62,23,0,0,0.0317452
63,23,0,0,0.0158726
64,23,0,0,0
1,24,0,0,1
2,24,0,0,0.984127
3,24,0,0,0.968253
4,24,0,0,0.95238
5,24,0,0,0.936506
6,24,0,0,0.920633
7,24,0,0,0.90476
8,24,0,0,0.888886
9,24,0,0,0.873013
10,24,0,0,0.857139
11,24,0,0,0.841266
12,24,0,0,0.825393
13,24,0,0,0.809519
14,24,0,0,0.793646
15,24,0,0,0.777773
16,24,0,0,0.761899
17,24,0,0,0.746026
18,24,0,0,0.730153
19,24,0,0,0.714279
20,24,0,0,0.698406
21,24,0,0,0.682533
22,24,0,0,0.66666
23,24,0,0,0.650786
24,24,0,0,0.634913
25,24,0,0,0.61904
26,24,0,0,0.603167
27,24,0,0,0.587294
28,24,0,0,0.571421
29,24,0,0,0.555548
30,24,0,0,0.539675
31,24,0,0,0.523801
32,24,0,0,0.507928
33,24,0,0,0.492055
34,24,0,0,0.476182
35,24,0,0,0.460309
36,24,0,0,0.444437
37,24,0,0,0.428564
38,24,0,0,0.412691
39,24,0,0,0.396818
40,24,0,0,0.380945
41,24,0,0,0.365072
42,24,0,0,0.349199
43,24,0,0,0.333326
44,24,0,0,0.317454
45,24,0,0,0.301581
46,24,0,0,0.285708
47,24,0,0,0.269835
48,24,0,0,0.253962
49,24,0,0,0.23809
50,24,0,0,0.222217
51,24,0,0,0.206344
52,24,0,0,0.190472
53,24,0,0,0.174599
54,24,0,0,0.158726
55,24,0,0,0.142854
56,24,0,0,0.126981
57,24,0,0,0.111108
58,24,0,0,0.0952357
59,24,0,0,0.0793631
60,24,0,0,0.0634905
61,24,0,0,0.0476178
62,24,0,0,0.0317452
63,24,0,0,0.0158726
64,24,0,0,0
1,25,0,0,1
2,25,0,0,0.984127
3,25,0,0,0.968253
4,25,0,0,0.95238
5,25,0,0,0.936506
6,25,0,0,0.920633
7,25,0,0,0.90476
8,25,0,0,0.888886
9,25,0,0,0.873013
10,25,0,0,0.857139
11,25,0,0,0.841266
12,25,0,0,0.825393
13,25,0,0,0.809519
14,25,0,0,0.793646
15,25,0,0,0.777773
16,25,0,0,0.761899
17,25,0,0,0.746026
18,25,0,0,0.730153
19,25,0,0,0.714279
20,25,0,0,0.698406
21,25,0,0,0.682533
22,25,0,0,0.66666
23,25,0,0,0.650786
24,25,0,0,0.634913
25,25,0,0,0.61904
26,25,0,0,0.603167
27,25,0,0,0.587294
28,25,0,0,0.571421
29,25,0,0,0.555548
30,25,0,0,0.539675
31,25,0,0,0.523801
32,25,0,0,0.507928
33,25,0,0,0.492055
34,25,0,0,0.476182
35,25,0,0,0.460309
36,25,0,0,0.444437
37,25,0,0,0.428564
38,25,0,0,0.412691
39,25,0,0,0.396818
40,25,0,0,0.380945
41,25,0,0,0.365072
42,25,0,0,0.349199
43,25,0,0,0.333326
44,25,0,0,0.317454
45,25,0,0,0.301581
46,25,0,0,0.285708
47,25,0,0,0.269835
48,25,0,0,0.253962
49,25,0,0,0.23809
50,25,0,0,0.222217
51,25,0,0,0.206344
52,25,0,0,0.190472
53,25,0,0,0.174599
54,25,0,0,0.158726
55,25,0,0,0.142854
56,25,0,0,0.126981
57,25,0,0,0.111108
58,25,0,0,0.0952357
59,25,0,0,0.0793631
60,25,0,0,0.0634905
61,25,0,0,0.0476178
62,25,0,0,0.0317452
63,25,0,0,0.0158726
64,25,0,0,0
1,26,0,0,1
2,26,0,0,0.984127
3,26,0,0,0.968253
4,26,0,0,0.95238
5,26,0,0,0.936506
6,26,0,0,0.920633
7,26,0,0,0.90476
8,26,0,0,0.888886
9,26,0,0,0.873013
10,26,0,0,0.857139
11,26,0,0,0.841266
12,26,0,0,0.825393
13,26,0,0,0.809519
14,26,0,0,0.793646
15,26,0,0,0.777773
16,26,0,0,0.761899
17,26,0,0,0.746026
18,26,0,0,0.730153
19,26,0,0,0.714279
20,26,0,0,0.698406
21,26,0,0,0.682533
22,26,0,0,0.66666
23,26,0,0,0.650786
24,26,0,0,0.634913
25,26,0,0,0.61904
26,26,0,0,0.603167
27,26,0,0,0.587294
28,26,0,0,0.571421
29,26,0,0,0.555548
30,26,0,0,0.539675
31,26,0,0,0.523801
32,26,0,0,0.507928
33,26,0,0,0.492055
34,26,0,0,0.476182
35,26,0,0,0.460309
36,26,0,0,0.444437
37,26,0,0,0.428564
38,26,0,0,0.412691
39,26,0,0,0.396818
40,26,0,0,0.380945
41,26,0,0,0.365072
42,26,0,0,0.349199
43,26,0,0,0.333326
44,26,0,0,0.317454
45,26,0,0,0.301581
46,26,0,0,0.285708
47,26,0,0,0.269835
48,26,0,0,0.253962
49,26,0,0,0.23809
50,26,0,0,0.222217
51,26,0,0,0.206344
52,26,0,0,0.190472
53,26,0,0,0.174599
54,26,0,0,0.158726
55,26,0,0,0.142854
56,26,0,0,0.126981
57,26,0,0,0.111108
58,26,0,0,0.0952357
59,26,0,0,0.0793631
60,26,0,0,0.0634905
61,26,0,0,0.0476178
62,26,0,0,0.0317452
63,26,0,0,0.0158726
64,26,0,0,0
1,27,0,0,1
2,27,0,0,0.984127
3,27,0,0,0.968253
4,27,0,0,0.95238
5,27,0,0,0.936506
6,27,0,0,0.920633
7,27,0,0,0.90476
8,27,0,0,0.888886
9,27,0,0,0.873013
10,27,0,0,0.857139
11,27,0,0,0.841266
12,27,0,0,0.825393
13,27,0,0,0.809519
14,27,0,0,0.793646
15,27,0,0,0.777773
16,27,0,0,0.761899
17,27,0,0,0.746026
18,27,0,0,0.730153
19,27,0,0,0.714279
20,27,0,0,0.698406
21,27,0,0,0.682533
22,27,0,0,0.66666
23,27,0,0,0.650786
24,27,0,0,0.634913
25,27,0,0,0.61904
26,27,0,0,0.603167
27,27,0,0,0.587294
28,27,0,0,0.571421
29,27,0,0,0.555548
30,27,0,0,0.539675
31,27,0,0,0.523801
32,27,0,0,0.507928
33,27,0,0,0.492055